Variables="x" "velocity_y"
Zone ZoneType=ORDERED DataPacking=POINT
T="Cavity_sample"
0.0046,-0.0092
0.0114,0.1348
0.0251,0.2586
0.0456,0.347
0.0638,0.3975
0.082,0.4278
0.1048,0.4354
0.1185,0.4227
0.1503,0.3823
0.1822,0.3482
0.2836,0.2346
0.385,0.1285
0.5604,-0.0496
0.68,-0.1746
0.8178,-0.335
0.8895,-0.4184
0.9032,-0.4411
0.918,-0.4802
0.9328,-0.5333
0.9408,-0.5636
0.9453,-0.5749
0.9499,-0.5762
0.967,-0.4853
0.9784,-0.3426
0.9897,-0.1872
1,-0.0041
