Title="Cavity_Nx64"
Variables="iter" "iter_diff_velocity" 

Zone ZoneType=ORDERED DataPacking=POINT
T="Cavity_Nx64"
1 0.44778 
2 0.208238 
3 0.101053 
4 0.0841546 
5 0.0819688 
6 0.0711744 
7 0.066177 
8 0.062115 
9 0.059606 
10 0.0558768 
11 0.0537531 
12 0.0508983 
13 0.0509969 
14 0.0512198 
15 0.0516519 
16 0.052254 
17 0.0509456 
18 0.0496449 
19 0.0506512 
20 0.0495945 
21 0.0477725 
22 0.0468552 
23 0.0466086 
24 0.0450948 
25 0.043468 
26 0.0421377 
27 0.0412281 
28 0.0396815 
29 0.0388594 
30 0.0378905 
31 0.0362256 
32 0.0355296 
33 0.0344188 
34 0.0328095 
35 0.0321386 
36 0.0310967 
37 0.03011 
38 0.0292468 
39 0.0278531 
40 0.0270676 
41 0.0257546 
42 0.0250638 
43 0.0238392 
44 0.0229273 
45 0.0218963 
46 0.021041 
47 0.0200702 
48 0.0192566 
49 0.0182819 
50 0.0176337 
51 0.0165263 
52 0.0161867 
53 0.0153915 
54 0.0151594 
55 0.0147047 
56 0.0145234 
57 0.0141988 
58 0.0138682 
59 0.0136785 
60 0.0133901 
61 0.0130355 
62 0.0128324 
63 0.0125991 
64 0.01232 
65 0.0119703 
66 0.0116292 
67 0.0113261 
68 0.0109959 
69 0.0106718 
70 0.0103498 
71 0.0100423 
72 0.00994444 
73 0.00991025 
74 0.00985704 
75 0.00978623 
76 0.00973706 
77 0.0096893 
78 0.00957852 
79 0.00951182 
80 0.00942709 
81 0.00931908 
82 0.00922667 
83 0.00907343 
84 0.00898443 
85 0.00884649 
86 0.00865761 
87 0.00856428 
88 0.00843113 
89 0.00833629 
90 0.00829924 
91 0.00824589 
92 0.00830375 
93 0.00831755 
94 0.00830332 
95 0.00826224 
96 0.00823865 
97 0.00825948 
98 0.00823787 
99 0.00823391 
100 0.00813595 
101 0.00816755 
102 0.00806514 
103 0.00803637 
104 0.00791962 
105 0.00787878 
106 0.007806 
107 0.00776801 
108 0.00771637 
109 0.00768217 
110 0.00763724 
111 0.00756946 
112 0.00754056 
113 0.00749529 
114 0.00742844 
115 0.00740016 
116 0.0073625 
117 0.00730007 
118 0.00724979 
119 0.00723018 
120 0.00719273 
121 0.00712775 
122 0.00705847 
123 0.00706884 
124 0.00707013 
125 0.0070624 
126 0.0070424 
127 0.00702106 
128 0.00699988 
129 0.00698506 
130 0.00694578 
131 0.00690609 
132 0.00684154 
133 0.00677641 
134 0.00673258 
135 0.00666365 
136 0.00659692 
137 0.00654507 
138 0.0064858 
139 0.00641657 
140 0.00636183 
141 0.00631274 
142 0.00624793 
143 0.00618199 
144 0.00610221 
145 0.00603498 
146 0.00596751 
147 0.00588276 
148 0.00580521 
149 0.00571642 
150 0.00562911 
151 0.00553092 
152 0.00541437 
153 0.00530659 
154 0.00517242 
155 0.0050544 
156 0.00492436 
157 0.00486161 
158 0.00481248 
159 0.00475701 
160 0.00469484 
161 0.00462679 
162 0.00455149 
163 0.00448524 
164 0.00441621 
165 0.00435153 
166 0.00429329 
167 0.00424347 
168 0.00418361 
169 0.00413504 
170 0.00406951 
171 0.00400577 
172 0.0039386 
173 0.00390715 
174 0.00391779 
175 0.00391958 
176 0.00391194 
177 0.00389752 
178 0.00387459 
179 0.00384936 
180 0.00383117 
181 0.00380806 
182 0.00378092 
183 0.0037508 
184 0.00371805 
185 0.00368247 
186 0.00364344 
187 0.00361196 
188 0.00357743 
189 0.00353336 
190 0.00348152 
191 0.00341609 
192 0.00334426 
193 0.00325945 
194 0.00316737 
195 0.00306688 
196 0.00295684 
197 0.00287816 
198 0.00283589 
199 0.00278444 
200 0.00272763 
201 0.0026623 
202 0.00259283 
203 0.00253404 
204 0.00254422 
205 0.00255721 
206 0.00257083 
207 0.00257454 
208 0.00257639 
209 0.00257586 
210 0.00257147 
211 0.00256377 
212 0.00255415 
213 0.00254076 
214 0.00251716 
215 0.00249697 
216 0.00247822 
217 0.00251099 
218 0.00255608 
219 0.00258786 
220 0.00261633 
221 0.00266187 
222 0.00269067 
223 0.00271427 
224 0.00274735 
225 0.0027619 
226 0.00279748 
227 0.00281467 
228 0.00283169 
229 0.00284895 
230 0.00287731 
231 0.00288908 
232 0.0029074 
233 0.00291264 
234 0.0029239 
235 0.00292091 
236 0.00292095 
237 0.00290741 
238 0.00288487 
239 0.00285825 
240 0.00283919 
241 0.00280714 
242 0.00276074 
243 0.00271409 
244 0.00265098 
245 0.00260033 
246 0.00253728 
247 0.00246116 
248 0.00242663 
249 0.00243203 
250 0.00243606 
251 0.00243822 
252 0.00243755 
253 0.00243492 
254 0.00243093 
255 0.00242181 
256 0.00240744 
257 0.00239385 
258 0.00238791 
259 0.002379 
260 0.00236286 
261 0.0023423 
262 0.00231315 
263 0.002299 
264 0.00227017 
265 0.00223649 
266 0.00220865 
267 0.00217596 
268 0.00213148 
269 0.00209468 
270 0.00204451 
271 0.00199441 
272 0.0019668 
273 0.00191939 
274 0.001864 
275 0.00181553 
276 0.00173385 
277 0.00168256 
278 0.00162665 
279 0.00156273 
280 0.00150128 
281 0.00143271 
282 0.00135769 
283 0.00134685 
284 0.00133535 
285 0.00132296 
286 0.00130945 
287 0.00129429 
288 0.0012766 
289 0.00125516 
290 0.00124357 
291 0.0012485 
292 0.00124533 
293 0.00123777 
294 0.00122485 
295 0.00123141 
296 0.00122544 
297 0.00121733 
298 0.00121724 
299 0.00120004 
300 0.00119492 
301 0.00117927 
302 0.0011571 
303 0.00113943 
304 0.0011062 
305 0.00107306 
306 0.00104071 
307 0.000995284 
308 0.00095136 
309 0.00092157 
310 0.000899894 
311 0.000880938 
312 0.000877209 
313 0.000872602 
314 0.00086354 
315 0.000859191 
316 0.000850709 
317 0.000835307 
318 0.000818812 
319 0.000809021 
320 0.000792885 
321 0.000770852 
322 0.000755895 
323 0.000757142 
324 0.000756383 
325 0.000753386 
326 0.000752701 
327 0.000753916 
328 0.000753623 
329 0.000751195 
330 0.000747225 
331 0.000741552 
332 0.000732277 
333 0.000723463 
334 0.000718687 
335 0.000712389 
336 0.000701209 
337 0.000693113 
338 0.000685469 
339 0.000673141 
340 0.000663665 
341 0.000654556 
342 0.00064132 
343 0.000631396 
344 0.000618214 
345 0.000605814 
346 0.000589849 
347 0.000577558 
348 0.000562016 
349 0.000544107 
350 0.000526494 
351 0.000514801 
352 0.000503505 
353 0.000489993 
354 0.000477246 
355 0.000461723 
356 0.000446092 
357 0.000442336 
358 0.00043857 
359 0.000433447 
360 0.000428775 
361 0.000422421 
362 0.00041657 
363 0.000409643 
364 0.000402497 
365 0.000394779 
366 0.000386371 
367 0.000378131 
368 0.00036972 
369 0.000360578 
370 0.000350935 
371 0.000342314 
372 0.000333552 
373 0.000330645 
374 0.000332667 
375 0.000334538 
376 0.000336384 
377 0.000338174 
378 0.00033981 
379 0.000341093 
380 0.000343041 
381 0.000344223 
382 0.000345407 
383 0.000346637 
384 0.000346407 
385 0.00034638 
386 0.000345387 
387 0.000342879 
388 0.000341211 
389 0.000337922 
390 0.000333453 
391 0.000327919 
392 0.000322612 
393 0.000316113 
394 0.000310016 
395 0.000302276 
396 0.000295024 
397 0.000286789 
398 0.000279277 
399 0.000270995 
400 0.000263669 
401 0.00026092 
402 0.000259115 
403 0.000256786 
404 0.00025391 
405 0.00025057 
406 0.000246791 
407 0.000242506 
408 0.000237662 
409 0.000232656 
410 0.000227135 
411 0.000221307 
412 0.00021767 
413 0.000216067 
414 0.000213674 
415 0.000210567 
416 0.000207563 
417 0.000204896 
418 0.000203008 
419 0.000202007 
420 0.000201277 
421 0.000200533 
422 0.000200041 
423 0.00019924 
424 0.000198332 
425 0.00019726 
426 0.000196085 
427 0.000194719 
428 0.000193045 
429 0.000191095 
430 0.000189082 
431 0.000186542 
432 0.000184061 
433 0.00018117 
434 0.000178234 
435 0.000175309 
436 0.000171932 
437 0.00016814 
438 0.000164606 
439 0.000160997 
440 0.000157176 
441 0.000153142 
442 0.000148862 
443 0.000145234 
444 0.000141414 
445 0.000137566 
446 0.00013366 
447 0.000129968 
448 0.000126396 
449 0.000123198 
450 0.000120307 
451 0.00011784 
452 0.000117528 
453 0.000117363 
454 0.00011701 
455 0.000116375 
456 0.000116089 
457 0.000115488 
458 0.000114616 
459 0.000113599 
460 0.000113884 
461 0.000114319 
462 0.00011447 
463 0.000114384 
464 0.00011413 
465 0.000114123 
466 0.000113945 
467 0.000113541 
468 0.000113011 
469 0.000112268 
470 0.000111438 
471 0.000110427 
472 0.000109334 
473 0.000108307 
474 0.000107323 
475 0.000106219 
476 0.000105018 
477 0.000103773 
478 0.000102433 
479 0.000101011 
480 0.000100871 
481 0.000101169 
482 0.000101562 
483 0.000101906 
484 0.000102246 
485 0.000102423 
486 0.000102612 
487 0.000102829 
488 0.0001029 
489 0.000102894 
490 0.000102747 
491 0.000102554 
492 0.000102213 
493 0.000101785 
494 0.000101316 
495 0.000100727 
496 0.000100027 
497 9.92853e-05 
498 9.85328e-05 
499 9.77017e-05 
500 9.67976e-05 
501 9.58296e-05 
502 9.48071e-05 
503 9.38302e-05 
504 9.28549e-05 
505 9.18451e-05 
506 9.08082e-05 
507 8.97515e-05 
508 8.8682e-05 
509 8.76065e-05 
510 8.65312e-05 
511 8.54626e-05 
512 8.44947e-05 
513 8.35377e-05 
514 8.25933e-05 
515 8.16663e-05 
516 8.07611e-05 
517 7.98965e-05 
518 7.90973e-05 
519 7.834e-05 
520 7.76268e-05 
521 7.69805e-05 
522 7.69363e-05 
523 7.68184e-05 
524 7.66443e-05 
525 7.64257e-05 
526 7.61438e-05 
527 7.58036e-05 
528 7.54111e-05 
529 7.50028e-05 
530 7.45548e-05 
531 7.41001e-05 
532 7.36842e-05 
533 7.32534e-05 
534 7.29089e-05 
535 7.28041e-05 
536 7.2711e-05 
537 7.26448e-05 
538 7.26557e-05 
539 7.27324e-05 
540 7.2807e-05 
541 7.28752e-05 
542 7.29328e-05 
543 7.29762e-05 
544 7.30143e-05 
545 7.31067e-05 
546 7.31676e-05 
547 7.3194e-05 
548 7.31838e-05 
549 7.31353e-05 
550 7.30478e-05 
551 7.29208e-05 
552 7.27548e-05 
553 7.25508e-05 
554 7.23102e-05 
555 7.20349e-05 
556 7.17274e-05 
557 7.13903e-05 
558 7.10471e-05 
559 7.06888e-05 
560 7.03097e-05 
561 6.99129e-05 
562 6.95014e-05 
563 6.90781e-05 
564 6.86459e-05 
565 6.82074e-05 
566 6.77651e-05 
567 6.73214e-05 
568 6.68784e-05 
569 6.64379e-05 
570 6.60016e-05 
571 6.55707e-05 
572 6.51466e-05 
573 6.47301e-05 
574 6.43221e-05 
575 6.39232e-05 
576 6.35339e-05 
577 6.31545e-05 
578 6.27852e-05 
579 6.24263e-05 
580 6.20779e-05 
581 6.174e-05 
582 6.14127e-05 
583 6.10959e-05 
584 6.07896e-05 
585 6.04938e-05 
586 6.02083e-05 
587 5.99332e-05 
588 5.96683e-05 
589 5.94136e-05 
590 5.9169e-05 
591 5.89342e-05 
592 5.87195e-05 
593 5.85302e-05 
594 5.83499e-05 
595 5.81781e-05 
596 5.80143e-05 
597 5.78581e-05 
598 5.7709e-05 
599 5.75808e-05 
600 5.74607e-05 
601 5.73453e-05 
602 5.72341e-05 
603 5.71316e-05 
604 5.70388e-05 
605 5.69468e-05 
606 5.68547e-05 
607 5.6762e-05 
608 5.66677e-05 
609 5.65712e-05 
610 5.64715e-05 
611 5.63678e-05 
612 5.62595e-05 
613 5.61455e-05 
614 5.60253e-05 
615 5.58982e-05 
616 5.57635e-05 
617 5.56207e-05 
618 5.54695e-05 
619 5.53094e-05 
620 5.51405e-05 
621 5.49626e-05 
622 5.47758e-05 
623 5.45816e-05 
624 5.43849e-05 
625 5.41803e-05 
626 5.39683e-05 
627 5.37496e-05 
628 5.35248e-05 
629 5.3295e-05 
630 5.30611e-05 
631 5.2824e-05 
632 5.25848e-05 
633 5.23447e-05 
634 5.21046e-05 
635 5.18657e-05 
636 5.16289e-05 
637 5.13952e-05 
638 5.11654e-05 
639 5.09401e-05 
640 5.07202e-05 
641 5.0506e-05 
642 5.02979e-05 
643 5.00962e-05 
644 4.99009e-05 
645 4.97121e-05 
646 4.95352e-05 
647 4.9366e-05 
648 4.92027e-05 
649 4.90447e-05 
650 4.88915e-05 
651 4.87425e-05 
652 4.85971e-05 
653 4.84546e-05 
654 4.83146e-05 
655 4.81763e-05 
656 4.80394e-05 
657 4.79177e-05 
658 4.77982e-05 
659 4.76781e-05 
660 4.75572e-05 
661 4.74349e-05 
662 4.73112e-05 
663 4.71859e-05 
664 4.7059e-05 
665 4.69306e-05 
666 4.68008e-05 
667 4.66698e-05 
668 4.65377e-05 
669 4.64051e-05 
670 4.62723e-05 
671 4.61395e-05 
672 4.6007e-05 
673 4.58752e-05 
674 4.57445e-05 
675 4.5615e-05 
676 4.54869e-05 
677 4.53604e-05 
678 4.52356e-05 
679 4.51125e-05 
680 4.49911e-05 
681 4.48713e-05 
682 4.4753e-05 
683 4.46366e-05 
684 4.45219e-05 
685 4.44076e-05 
686 4.42935e-05 
687 4.41794e-05 
688 4.40649e-05 
689 4.39496e-05 
690 4.38335e-05 
691 4.37162e-05 
692 4.35975e-05 
693 4.34772e-05 
694 4.33552e-05 
695 4.32315e-05 
696 4.3106e-05 
697 4.29787e-05 
698 4.28498e-05 
699 4.27193e-05 
700 4.25874e-05 
701 4.24544e-05 
702 4.23206e-05 
703 4.21861e-05 
704 4.20516e-05 
705 4.19182e-05 
706 4.17847e-05 
707 4.16515e-05 
708 4.1519e-05 
709 4.13875e-05 
710 4.12575e-05 
711 4.11291e-05 
712 4.10026e-05 
713 4.08784e-05 
714 4.07567e-05 
715 4.06375e-05 
716 4.05209e-05 
717 4.0407e-05 
718 4.0299e-05 
719 4.01948e-05 
720 4.00929e-05 
721 3.99931e-05 
722 3.98952e-05 
723 3.97989e-05 
724 3.9704e-05 
725 3.96101e-05 
726 3.9517e-05 
727 3.94243e-05 
728 3.93318e-05 
729 3.92392e-05 
730 3.91462e-05 
731 3.90527e-05 
732 3.89584e-05 
733 3.88633e-05 
734 3.87671e-05 
735 3.86699e-05 
736 3.85716e-05 
737 3.84723e-05 
738 3.83719e-05 
739 3.82707e-05 
740 3.81686e-05 
741 3.80659e-05 
742 3.79628e-05 
743 3.78594e-05 
744 3.7756e-05 
745 3.76527e-05 
746 3.75497e-05 
747 3.74473e-05 
748 3.73455e-05 
749 3.72447e-05 
750 3.71448e-05 
751 3.7046e-05 
752 3.69483e-05 
753 3.68519e-05 
754 3.67567e-05 
755 3.66627e-05 
756 3.65698e-05 
757 3.64781e-05 
758 3.63872e-05 
759 3.62973e-05 
760 3.62081e-05 
761 3.61194e-05 
762 3.60312e-05 
763 3.59432e-05 
764 3.58553e-05 
765 3.57674e-05 
766 3.56793e-05 
767 3.5591e-05 
768 3.55023e-05 
769 3.54131e-05 
770 3.53271e-05 
771 3.52409e-05 
772 3.5154e-05 
773 3.50666e-05 
774 3.49785e-05 
775 3.48899e-05 
776 3.48009e-05 
777 3.47116e-05 
778 3.4622e-05 
779 3.45324e-05 
780 3.44429e-05 
781 3.43536e-05 
782 3.42646e-05 
783 3.41762e-05 
784 3.40884e-05 
785 3.40014e-05 
786 3.39152e-05 
787 3.38299e-05 
788 3.37457e-05 
789 3.36625e-05 
790 3.35804e-05 
791 3.34993e-05 
792 3.34192e-05 
793 3.33402e-05 
794 3.3262e-05 
795 3.31846e-05 
796 3.31079e-05 
797 3.30319e-05 
798 3.29562e-05 
799 3.2881e-05 
800 3.28059e-05 
801 3.27309e-05 
802 3.26567e-05 
803 3.25825e-05 
804 3.2508e-05 
805 3.24331e-05 
806 3.23579e-05 
807 3.22822e-05 
808 3.2206e-05 
809 3.21294e-05 
810 3.20523e-05 
811 3.19749e-05 
812 3.1897e-05 
813 3.18189e-05 
814 3.17406e-05 
815 3.16621e-05 
816 3.15836e-05 
817 3.15051e-05 
818 3.14268e-05 
819 3.13488e-05 
820 3.12711e-05 
821 3.11939e-05 
822 3.11172e-05 
823 3.1041e-05 
824 3.09655e-05 
825 3.08907e-05 
826 3.08165e-05 
827 3.0743e-05 
828 3.06703e-05 
829 3.05982e-05 
830 3.05267e-05 
831 3.04558e-05 
832 3.03855e-05 
833 3.03157e-05 
834 3.02463e-05 
835 3.01772e-05 
836 3.01084e-05 
837 3.00397e-05 
838 2.99712e-05 
839 2.99028e-05 
840 2.98343e-05 
841 2.97658e-05 
842 2.96972e-05 
843 2.96284e-05 
844 2.95595e-05 
845 2.94925e-05 
846 2.94254e-05 
847 2.93581e-05 
848 2.92905e-05 
849 2.92228e-05 
850 2.9155e-05 
851 2.90871e-05 
852 2.90191e-05 
853 2.89512e-05 
854 2.88834e-05 
855 2.88157e-05 
856 2.87483e-05 
857 2.86811e-05 
858 2.86143e-05 
859 2.85479e-05 
860 2.84818e-05 
861 2.84162e-05 
862 2.83511e-05 
863 2.82864e-05 
864 2.82222e-05 
865 2.81584e-05 
866 2.80951e-05 
867 2.80321e-05 
868 2.79696e-05 
869 2.79074e-05 
870 2.78455e-05 
871 2.77839e-05 
872 2.77225e-05 
873 2.76613e-05 
874 2.76002e-05 
875 2.75391e-05 
876 2.7478e-05 
877 2.7417e-05 
878 2.73558e-05 
879 2.72946e-05 
880 2.72333e-05 
881 2.71718e-05 
882 2.71102e-05 
883 2.70485e-05 
884 2.69867e-05 
885 2.69248e-05 
886 2.68627e-05 
887 2.68007e-05 
888 2.67386e-05 
889 2.66766e-05 
890 2.66146e-05 
891 2.65527e-05 
892 2.6491e-05 
893 2.64295e-05 
894 2.63682e-05 
895 2.63072e-05 
896 2.62465e-05 
897 2.61861e-05 
898 2.6126e-05 
899 2.60663e-05 
900 2.6007e-05 
901 2.59481e-05 
902 2.58895e-05 
903 2.58313e-05 
904 2.57734e-05 
905 2.57158e-05 
906 2.56585e-05 
907 2.56014e-05 
908 2.55446e-05 
909 2.54879e-05 
910 2.54314e-05 
911 2.53751e-05 
912 2.53187e-05 
913 2.52625e-05 
914 2.52063e-05 
915 2.51501e-05 
916 2.50938e-05 
917 2.50375e-05 
918 2.49812e-05 
919 2.49255e-05 
920 2.48702e-05 
921 2.4815e-05 
922 2.47597e-05 
923 2.47043e-05 
924 2.4649e-05 
925 2.45937e-05 
926 2.45384e-05 
927 2.44832e-05 
928 2.44281e-05 
929 2.43731e-05 
930 2.43183e-05 
931 2.42636e-05 
932 2.42092e-05 
933 2.41549e-05 
934 2.41009e-05 
935 2.40472e-05 
936 2.39938e-05 
937 2.39406e-05 
938 2.38876e-05 
939 2.3835e-05 
940 2.37826e-05 
941 2.37304e-05 
942 2.36785e-05 
943 2.36268e-05 
944 2.35752e-05 
945 2.35239e-05 
946 2.34729e-05 
947 2.34223e-05 
948 2.33718e-05 
949 2.33213e-05 
950 2.32709e-05 
951 2.32204e-05 
952 2.317e-05 
953 2.31196e-05 
954 2.30692e-05 
955 2.30188e-05 
956 2.29684e-05 
957 2.2918e-05 
958 2.28676e-05 
959 2.28172e-05 
960 2.27668e-05 
961 2.27165e-05 
962 2.26662e-05 
963 2.2616e-05 
964 2.25659e-05 
965 2.25159e-05 
966 2.24661e-05 
967 2.24164e-05 
968 2.23668e-05 
969 2.23174e-05 
970 2.22682e-05 
971 2.22192e-05 
972 2.21704e-05 
973 2.21218e-05 
974 2.20734e-05 
975 2.20252e-05 
976 2.19771e-05 
977 2.19293e-05 
978 2.18816e-05 
979 2.18341e-05 
980 2.17867e-05 
981 2.17395e-05 
982 2.16924e-05 
983 2.16454e-05 
984 2.15984e-05 
985 2.15516e-05 
986 2.15048e-05 
987 2.14581e-05 
988 2.14114e-05 
989 2.13648e-05 
990 2.13181e-05 
991 2.12716e-05 
992 2.1225e-05 
993 2.11784e-05 
994 2.11319e-05 
995 2.10855e-05 
996 2.1039e-05 
997 2.09927e-05 
998 2.09464e-05 
999 2.09001e-05 
1000 2.0854e-05 
