Title="Cavity_Nx100"
Variables="iter" "iter_diff_velocity" 

Zone ZoneType=ORDERED DataPacking=POINT
T="Cavity_Nx100"
1 0.459594 
2 0.110598 
3 0.0744864 
4 0.0600096 
5 0.0465613 
6 0.0398264 
7 0.0346702 
8 0.0300723 
9 0.0263534 
10 0.0233251 
11 0.0207964 
12 0.0189673 
13 0.0176667 
14 0.0164867 
15 0.0154219 
16 0.0144543 
17 0.013575 
18 0.0127748 
19 0.0120454 
20 0.0113791 
21 0.0107692 
22 0.0102097 
23 0.009707 
24 0.00933312 
25 0.00898059 
26 0.00864831 
27 0.008335 
28 0.008039 
29 0.00775913 
30 0.0074943 
31 0.00724349 
32 0.00700575 
33 0.0067806 
34 0.00656692 
35 0.00636381 
36 0.0061706 
37 0.00598666 
38 0.00581172 
39 0.00564564 
40 0.00551257 
41 0.00538434 
42 0.00526064 
43 0.00514142 
44 0.00502657 
45 0.00491566 
46 0.00480854 
47 0.00470532 
48 0.00460551 
49 0.00450898 
50 0.00441587 
51 0.00432574 
52 0.00423846 
53 0.00415418 
54 0.0040725 
55 0.0039933 
56 0.00391673 
57 0.00384245 
58 0.00377037 
59 0.00370059 
60 0.00363501 
61 0.00357785 
62 0.00352213 
63 0.00346788 
64 0.00341776 
65 0.00337096 
66 0.0033228 
67 0.00327329 
68 0.00322254 
69 0.00317319 
70 0.00312736 
71 0.00308299 
72 0.00303958 
73 0.00299723 
74 0.00295579 
75 0.00291534 
76 0.00287576 
77 0.00283706 
78 0.0027992 
79 0.00276213 
80 0.00272589 
81 0.00269036 
82 0.00265562 
83 0.00262157 
84 0.00258821 
85 0.00255556 
86 0.00252352 
87 0.00249555 
88 0.00246829 
89 0.00244147 
90 0.00241512 
91 0.00238922 
92 0.00236375 
93 0.00233874 
94 0.00231411 
95 0.00228993 
96 0.00226613 
97 0.00224274 
98 0.00221973 
99 0.00219709 
100 0.00217484 
101 0.00215292 
102 0.00213139 
103 0.00211018 
104 0.00208932 
105 0.00206878 
106 0.00204857 
107 0.00202868 
108 0.00200908 
109 0.0019898 
110 0.00197081 
111 0.0019521 
112 0.00193369 
113 0.00191554 
114 0.00189767 
115 0.00188009 
116 0.00186326 
117 0.00184899 
118 0.00183504 
119 0.00182065 
120 0.00180578 
121 0.00179041 
122 0.00177486 
123 0.00176055 
124 0.00174654 
125 0.0017327 
126 0.00171903 
127 0.00170555 
128 0.00169224 
129 0.0016791 
130 0.00166613 
131 0.00165331 
132 0.00164068 
133 0.00162818 
134 0.00161584 
135 0.00160366 
136 0.0015916 
137 0.00157971 
138 0.00156795 
139 0.00155632 
140 0.00154483 
141 0.00153346 
142 0.00152224 
143 0.00151114 
144 0.00150017 
145 0.00148933 
146 0.0014786 
147 0.00146801 
148 0.00145753 
149 0.00144718 
150 0.00143694 
151 0.00142682 
152 0.0014175 
153 0.00140846 
154 0.00139953 
155 0.00139069 
156 0.00138194 
157 0.0013733 
158 0.00136475 
159 0.00135629 
160 0.00134793 
161 0.00133967 
162 0.00133183 
163 0.00132446 
164 0.00131699 
165 0.00130944 
166 0.00130183 
167 0.0012942 
168 0.00128653 
169 0.00127885 
170 0.00127124 
171 0.00126404 
172 0.00125691 
173 0.00124987 
174 0.00124289 
175 0.00123598 
176 0.00122915 
177 0.00122238 
178 0.00121568 
179 0.00120904 
180 0.00120247 
181 0.00119596 
182 0.00118951 
183 0.00118312 
184 0.0011768 
185 0.00117052 
186 0.00116431 
187 0.00115815 
188 0.00115205 
189 0.001146 
190 0.00114001 
191 0.00113428 
192 0.00112885 
193 0.00112347 
194 0.00111813 
195 0.00111283 
196 0.00110757 
197 0.00110235 
198 0.00109717 
199 0.00109204 
200 0.00108694 
201 0.00108187 
202 0.00107685 
203 0.00107186 
204 0.00106691 
205 0.00106199 
206 0.00105711 
207 0.00105227 
208 0.00104746 
209 0.0010427 
210 0.00103797 
211 0.00103327 
212 0.00102862 
213 0.00102401 
214 0.00101945 
215 0.00101494 
216 0.00101052 
217 0.00100636 
218 0.00100268 
219 0.000998579 
220 0.000994081 
221 0.000989296 
222 0.000985035 
223 0.000980789 
224 0.000976576 
225 0.000972386 
226 0.00096824 
227 0.00096413 
228 0.000960046 
229 0.000955991 
230 0.000951982 
231 0.000947997 
232 0.000944035 
233 0.000940115 
234 0.000936224 
235 0.000932355 
236 0.000928516 
237 0.000924715 
238 0.000921001 
239 0.000917521 
240 0.000914068 
241 0.00091063 
242 0.000907214 
243 0.000903831 
244 0.000900463 
245 0.000897108 
246 0.000893789 
247 0.000890487 
248 0.000887199 
249 0.000883936 
250 0.000880699 
251 0.000877475 
252 0.000874266 
253 0.000871093 
254 0.000867931 
255 0.000864781 
256 0.00086166 
257 0.000858558 
258 0.000855466 
259 0.00085239 
260 0.000849342 
261 0.000846305 
262 0.000843277 
263 0.00084028 
264 0.000837302 
265 0.000834334 
266 0.000831382 
267 0.000828467 
268 0.000825566 
269 0.000822683 
270 0.000819837 
271 0.000817033 
272 0.000814268 
273 0.000811594 
274 0.000809315 
275 0.000807051 
276 0.000804266 
277 0.000801242 
278 0.00079859 
279 0.000795915 
280 0.000793264 
281 0.000790633 
282 0.000788017 
283 0.000785413 
284 0.000782847 
285 0.000780295 
286 0.000777753 
287 0.000775235 
288 0.000772741 
289 0.000770255 
290 0.000767782 
291 0.000765342 
292 0.000762909 
293 0.000760649 
294 0.000758404 
295 0.000756172 
296 0.000753966 
297 0.000751763 
298 0.000749563 
299 0.000747395 
300 0.00074523 
301 0.000743066 
302 0.000740932 
303 0.000738805 
304 0.00073668 
305 0.000734577 
306 0.000732487 
307 0.000730399 
308 0.000728327 
309 0.000726274 
310 0.000724221 
311 0.000722179 
312 0.000720161 
313 0.000718143 
314 0.000716127 
315 0.00071414 
316 0.000712153 
317 0.000710166 
318 0.000708208 
319 0.000706255 
320 0.000704303 
321 0.000702372 
322 0.000700458 
323 0.000698548 
324 0.000696653 
325 0.000694791 
326 0.000692943 
327 0.000691125 
328 0.000689377 
329 0.000687689 
330 0.000686363 
331 0.00068495 
332 0.000682935 
333 0.000681182 
334 0.000679436 
335 0.000677716 
336 0.000675982 
337 0.000674272 
338 0.000672583 
339 0.000670898 
340 0.000669235 
341 0.000667594 
342 0.000665956 
343 0.000664332 
344 0.000662734 
345 0.000661136 
346 0.000659546 
347 0.000657985 
348 0.000656423 
349 0.000654863 
350 0.000653337 
351 0.000651808 
352 0.000650275 
353 0.000648777 
354 0.000647276 
355 0.000645772 
356 0.000644355 
357 0.000642988 
358 0.000641617 
359 0.000640241 
360 0.000638899 
361 0.000637551 
362 0.000636198 
363 0.000634878 
364 0.000633553 
365 0.000632223 
366 0.000630923 
367 0.000629621 
368 0.000628313 
369 0.000627033 
370 0.000625752 
371 0.000624464 
372 0.000623201 
373 0.000621941 
374 0.000620676 
375 0.000619432 
376 0.0006182 
377 0.000616965 
378 0.000615747 
379 0.000614553 
380 0.000613362 
381 0.000612195 
382 0.000611076 
383 0.000609988 
384 0.000609005 
385 0.000608161 
386 0.000607572 
387 0.000606352 
388 0.00060531 
389 0.000604176 
390 0.00060312 
391 0.000602056 
392 0.000600988 
393 0.000599929 
394 0.000598915 
395 0.0005979 
396 0.000596885 
397 0.000595912 
398 0.00059494 
399 0.000593965 
400 0.000593025 
401 0.000592089 
402 0.000591147 
403 0.000590232 
404 0.000589327 
405 0.000588414 
406 0.00058752 
407 0.00058664 
408 0.00058575 
409 0.000584872 
410 0.000584013 
411 0.000583145 
412 0.000582281 
413 0.000581442 
414 0.000580594 
415 0.000579743 
416 0.000578924 
417 0.000578095 
418 0.000577256 
419 0.000576456 
420 0.000575644 
421 0.000574822 
422 0.000574034 
423 0.000573241 
424 0.000572437 
425 0.000571658 
426 0.000570883 
427 0.000570096 
428 0.000569325 
429 0.00056857 
430 0.000567805 
431 0.000567044 
432 0.000566317 
433 0.000565585 
434 0.000564849 
435 0.000564166 
436 0.000563492 
437 0.00056283 
438 0.000562249 
439 0.000561732 
440 0.000561386 
441 0.000561316 
442 0.000561095 
443 0.000560531 
444 0.000559886 
445 0.00055927 
446 0.000558743 
447 0.000558187 
448 0.000557667 
449 0.00055718 
450 0.00055669 
451 0.000556213 
452 0.000555779 
453 0.000555341 
454 0.000554898 
455 0.000554509 
456 0.000554111 
457 0.000553705 
458 0.000553338 
459 0.000552974 
460 0.000552599 
461 0.000552244 
462 0.000551907 
463 0.000551556 
464 0.000551208 
465 0.000550892 
466 0.000550561 
467 0.000550215 
468 0.000549919 
469 0.000549606 
470 0.000549276 
471 0.00054898 
472 0.000548683 
473 0.000548369 
474 0.000548071 
475 0.000547789 
476 0.000547489 
477 0.000547186 
478 0.000546919 
479 0.000546633 
480 0.000546329 
481 0.000546072 
482 0.000545801 
483 0.000545512 
484 0.000545248 
485 0.000544997 
486 0.000544731 
487 0.000544468 
488 0.000544251 
489 0.000544027 
490 0.000543799 
491 0.000543637 
492 0.0005435 
493 0.000543388 
494 0.000543397 
495 0.00054353 
496 0.000543883 
497 0.000544542 
498 0.000544754 
499 0.000544827 
500 0.000544588 
501 0.000544555 
502 0.000544507 
503 0.000544405 
504 0.000544379 
505 0.000544377 
506 0.000544371 
507 0.000544397 
508 0.000544469 
509 0.000544534 
510 0.000544597 
511 0.00054473 
512 0.000544851 
513 0.000544957 
514 0.000545114 
515 0.000545278 
516 0.000545425 
517 0.000545587 
518 0.000545785 
519 0.000545962 
520 0.000546118 
521 0.000546342 
522 0.000546543 
523 0.000546719 
524 0.000546936 
525 0.000547157 
526 0.000547352 
527 0.000547553 
528 0.000547792 
529 0.000548003 
530 0.000548187 
531 0.00054844 
532 0.000548666 
533 0.000548864 
534 0.000549096 
535 0.000549336 
536 0.000549547 
537 0.000549755 
538 0.000550011 
539 0.000550239 
540 0.00055044 
541 0.000550698 
542 0.000550954 
543 0.00055119 
544 0.000551446 
545 0.000551757 
546 0.000552062 
547 0.000552368 
548 0.000552793 
549 0.00055326 
550 0.000553795 
551 0.000554618 
552 0.000555732 
553 0.000557177 
554 0.000558376 
555 0.000559226 
556 0.00055939 
557 0.00055977 
558 0.000560303 
559 0.000560752 
560 0.000561226 
561 0.000561762 
562 0.000562363 
563 0.000562962 
564 0.000563558 
565 0.000564266 
566 0.000564963 
567 0.000565646 
568 0.00056639 
569 0.000567161 
570 0.000567911 
571 0.000568665 
572 0.000569493 
573 0.000570295 
574 0.000571066 
575 0.000571909 
576 0.000572747 
577 0.000573551 
578 0.000574371 
579 0.000575238 
580 0.000576068 
581 0.000576861 
582 0.000577745 
583 0.000578596 
584 0.000579407 
585 0.000580255 
586 0.000581123 
587 0.000581949 
588 0.000582754 
589 0.000583637 
590 0.000584477 
591 0.000585275 
592 0.000586132 
593 0.000586988 
594 0.000587802 
595 0.00058861 
596 0.000589487 
597 0.000590326 
598 0.000591131 
599 0.000592016 
600 0.000592915 
601 0.000593794 
602 0.000594697 
603 0.000595716 
604 0.00059675 
605 0.000597822 
606 0.000599158 
607 0.000600654 
608 0.000602769 
609 0.000605395 
610 0.000607656 
611 0.00060978 
612 0.000610559 
613 0.000611295 
614 0.00061252 
615 0.000613567 
616 0.00061466 
617 0.000615907 
618 0.000617152 
619 0.000618398 
620 0.000619802 
621 0.000621212 
622 0.00062261 
623 0.000624079 
624 0.000625614 
625 0.000627125 
626 0.000628617 
627 0.000630246 
628 0.000631843 
629 0.000633402 
630 0.000635021 
631 0.000636675 
632 0.000638285 
633 0.000639861 
634 0.000641556 
635 0.000643201 
636 0.000644793 
637 0.000646446 
638 0.000648116 
639 0.00064973 
640 0.000651316 
641 0.000653005 
642 0.000654635 
643 0.000656206 
644 0.000657849 
645 0.000659493 
646 0.000661076 
647 0.000662637 
648 0.000664294 
649 0.000665892 
650 0.00066743 
651 0.000669044 
652 0.000670664 
653 0.000672231 
654 0.000673775 
655 0.000675452 
656 0.000677096 
657 0.000678712 
658 0.000680431 
659 0.000682231 
660 0.000684045 
661 0.000685957 
662 0.000688147 
663 0.000690514 
664 0.000693446 
665 0.000697989 
666 0.000701684 
667 0.000705436 
668 0.000707457 
669 0.000708474 
670 0.000710409 
671 0.000712296 
672 0.000714076 
673 0.000716115 
674 0.000718176 
675 0.000720242 
676 0.000722518 
677 0.00072483 
678 0.000727136 
679 0.000729518 
680 0.000732028 
681 0.000734512 
682 0.000736965 
683 0.000739588 
684 0.000742205 
685 0.000744777 
686 0.000747369 
687 0.000750072 
688 0.000752715 
689 0.000755292 
690 0.000757987 
691 0.000760673 
692 0.000763287 
693 0.000765879 
694 0.000768592 
695 0.000771228 
696 0.000773783 
697 0.00077643 
698 0.000779078 
699 0.000781643 
700 0.000784158 
701 0.000786815 
702 0.000789387 
703 0.000791873 
704 0.000794427 
705 0.000797009 
706 0.000799508 
707 0.000801925 
708 0.000804526 
709 0.000807055 
710 0.000809514 
711 0.000812016 
712 0.000814644 
713 0.000817236 
714 0.000819799 
715 0.000822572 
716 0.000825415 
717 0.000828297 
718 0.000831424 
719 0.000834913 
720 0.00083879 
721 0.000844165 
722 0.000850395 
723 0.000856714 
724 0.000861352 
725 0.000863304 
726 0.000865034 
727 0.000868023 
728 0.000870662 
729 0.000873326 
730 0.000876403 
731 0.000879503 
732 0.000882627 
733 0.000885952 
734 0.000889422 
735 0.000892891 
736 0.000896353 
737 0.000900106 
738 0.000903832 
739 0.000907524 
740 0.000911299 
741 0.000915218 
742 0.000919076 
743 0.000922861 
744 0.000926804 
745 0.000930746 
746 0.000934594 
747 0.000938382 
748 0.000942364 
749 0.000946245 
750 0.000950021 
751 0.00095384 
752 0.00095773 
753 0.000961509 
754 0.000965174 
755 0.000969001 
756 0.000972773 
757 0.000976429 
758 0.000980031 
759 0.000983795 
760 0.000987445 
761 0.000991009 
762 0.000994717 
763 0.000998313 
764 0.0010018 
765 0.0010055 
766 0.00100913 
767 0.00101268 
768 0.0010162 
769 0.00101999 
770 0.00102373 
771 0.00102743 
772 0.00103126 
773 0.00103531 
774 0.0010394 
775 0.00104387 
776 0.0010489 
777 0.00105476 
778 0.00106379 
779 0.00107163 
780 0.00108052 
781 0.00108574 
782 0.00108947 
783 0.00109138 
784 0.00109488 
785 0.00109882 
786 0.00110242 
787 0.00110626 
788 0.00111059 
789 0.00111496 
790 0.00111939 
791 0.00112402 
792 0.00112892 
793 0.00113382 
794 0.00113873 
795 0.00114389 
796 0.00114916 
797 0.0011544 
798 0.0011596 
799 0.00116506 
800 0.00117049 
801 0.00117582 
802 0.00118103 
803 0.00118653 
804 0.00119189 
805 0.00119713 
806 0.0012023 
807 0.00120766 
808 0.00121288 
809 0.00121795 
810 0.00122303 
811 0.00122822 
812 0.00123325 
813 0.00123813 
814 0.0012431 
815 0.0012481 
816 0.00125294 
817 0.00125764 
818 0.00126251 
819 0.00126734 
820 0.00127203 
821 0.00127658 
822 0.00128139 
823 0.00128613 
824 0.00129077 
825 0.00129535 
826 0.00130033 
827 0.00130526 
828 0.00131016 
829 0.00131512 
830 0.00132048 
831 0.00132589 
832 0.00133141 
833 0.00133756 
834 0.00134434 
835 0.00135565 
836 0.00136581 
837 0.00137738 
838 0.00138553 
839 0.00139154 
840 0.00139489 
841 0.00139777 
842 0.00140271 
843 0.0014072 
844 0.00141196 
845 0.00141705 
846 0.00142257 
847 0.00142819 
848 0.00143388 
849 0.00143986 
850 0.00144615 
851 0.00145247 
852 0.00145882 
853 0.00146545 
854 0.00147235 
855 0.00147947 
856 0.00148652 
857 0.00149346 
858 0.00150045 
859 0.00150759 
860 0.00151456 
861 0.00152201 
862 0.00153019 
863 0.00153812 
864 0.00154582 
865 0.00155357 
866 0.00156141 
867 0.00156901 
868 0.00157637 
869 0.00158376 
870 0.00159131 
871 0.00159863 
872 0.00160573 
873 0.00161286 
874 0.00162019 
875 0.00162731 
876 0.00163424 
877 0.00164118 
878 0.00164839 
879 0.00165553 
880 0.0016627 
881 0.00167024 
882 0.00167764 
883 0.00168493 
884 0.00169224 
885 0.00169999 
886 0.00170762 
887 0.00171512 
888 0.00172262 
889 0.00173063 
890 0.00173854 
891 0.00174634 
892 0.00175411 
893 0.00176252 
894 0.00177089 
895 0.00177924 
896 0.00178803 
897 0.00179864 
898 0.0018102 
899 0.00182131 
900 0.00183197 
901 0.00184294 
902 0.00185409 
903 0.00186475 
904 0.00187499 
905 0.00188608 
906 0.00189664 
907 0.00190664 
908 0.00192267 
909 0.00194765 
910 0.001974 
911 0.00199489 
912 0.00199958 
913 0.00199766 
914 0.00199161 
915 0.00199069 
916 0.00199654 
917 0.00200686 
918 0.00201704 
919 0.00202815 
920 0.00204081 
921 0.00206733 
922 0.0020901 
923 0.00210815 
924 0.00212391 
925 0.00213872 
926 0.00215153 
927 0.0021627 
928 0.00216863 
929 0.00217618 
930 0.00218827 
931 0.00220009 
932 0.00221248 
933 0.00222659 
934 0.00224051 
935 0.00225413 
936 0.00226892 
937 0.00228355 
938 0.00229775 
939 0.00231188 
940 0.00232681 
941 0.00234111 
942 0.00235476 
943 0.00236887 
944 0.002383 
945 0.00239651 
946 0.00240955 
947 0.00242366 
948 0.00243716 
949 0.00245007 
950 0.00246344 
951 0.00247702 
952 0.00249001 
953 0.0025025 
954 0.00251618 
955 0.00252924 
956 0.00254168 
957 0.00255452 
958 0.0025676 
959 0.00258 
960 0.00259172 
961 0.00260465 
962 0.00261683 
963 0.0026282 
964 0.0026396 
965 0.00265125 
966 0.00268169 
967 0.00271658 
968 0.00274951 
969 0.00275844 
970 0.0027674 
971 0.00275813 
972 0.00275071 
973 0.00275065 
974 0.00275324 
975 0.00275689 
976 0.00276974 
977 0.00278331 
978 0.00281629 
979 0.00284794 
980 0.0028743 
981 0.00289433 
982 0.00290884 
983 0.00292367 
984 0.00293441 
985 0.00293577 
986 0.00294636 
987 0.00296044 
988 0.00297326 
989 0.00298698 
990 0.00300213 
991 0.00301819 
992 0.00303383 
993 0.00304897 
994 0.0030651 
995 0.00308128 
996 0.00309679 
997 0.00311162 
998 0.00312785 
999 0.00314316 
1000 0.00315754 
1001 0.00317198 
1002 0.003187 
1003 0.00320118 
1004 0.00321451 
1005 0.00322902 
1006 0.00324316 
1007 0.00325649 
1008 0.00326963 
1009 0.00328383 
1010 0.00329721 
1011 0.00330977 
1012 0.00332321 
1013 0.00333662 
1014 0.00334917 
1015 0.00336107 
1016 0.00337439 
1017 0.00338676 
1018 0.00339815 
1019 0.00340973 
1020 0.00342155 
1021 0.00343221 
1022 0.00345913 
1023 0.00349854 
1024 0.00354048 
1025 0.00358567 
1026 0.00361953 
1027 0.0036309 
1028 0.00361976 
1029 0.00360326 
1030 0.00359284 
1031 0.00358961 
1032 0.00358963 
1033 0.00359083 
1034 0.00359661 
1035 0.00360375 
1036 0.00361063 
1037 0.00364506 
1038 0.00367664 
1039 0.00369824 
1040 0.00370902 
1041 0.00371963 
1042 0.00371601 
1043 0.00372808 
1044 0.00374157 
1045 0.00375178 
1046 0.00376574 
1047 0.00378044 
1048 0.00379451 
1049 0.00380831 
1050 0.00382394 
1051 0.00383876 
1052 0.0038527 
1053 0.00386677 
1054 0.0038818 
1055 0.00389577 
1056 0.00390856 
1057 0.00392196 
1058 0.00393537 
1059 0.00394767 
1060 0.0039589 
1061 0.00397184 
1062 0.00398399 
1063 0.00399511 
1064 0.00400598 
1065 0.00401813 
1066 0.00402928 
1067 0.00403942 
1068 0.00405031 
1069 0.00406149 
1070 0.00407165 
1071 0.00408076 
1072 0.00409152 
1073 0.00410154 
1074 0.00411043 
1075 0.00412677 
1076 0.00414705 
1077 0.00416705 
1078 0.00419055 
1079 0.00422226 
1080 0.00425697 
1081 0.00429539 
1082 0.00434361 
1083 0.00437788 
1084 0.00440579 
1085 0.0044185 
1086 0.00440079 
1087 0.00437592 
1088 0.00436134 
1089 0.00434959 
1090 0.00434645 
1091 0.00434459 
1092 0.00434195 
1093 0.00434684 
1094 0.00435273 
1095 0.00435655 
1096 0.00436103 
1097 0.00437297 
1098 0.00438395 
1099 0.00439186 
1100 0.00439823 
1101 0.00441148 
1102 0.00442433 
1103 0.00443419 
1104 0.00444061 
1105 0.00445252 
1106 0.00446584 
1107 0.00447628 
1108 0.00448285 
1109 0.00449178 
1110 0.00450513 
1111 0.00451577 
1112 0.00452252 
1113 0.00452881 
1114 0.00454227 
1115 0.00455275 
1116 0.0045596 
1117 0.00456308 
1118 0.00457618 
1119 0.00458631 
1120 0.00459319 
1121 0.0045961 
1122 0.00460744 
1123 0.00461767 
1124 0.00462508 
1125 0.00462845 
1126 0.00463787 
1127 0.00464887 
1128 0.00465729 
1129 0.00466264 
1130 0.00467145 
1131 0.00468499 
1132 0.00469692 
1133 0.00470751 
1134 0.00472212 
1135 0.00474308 
1136 0.00476643 
1137 0.00479162 
1138 0.004827 
1139 0.00487046 
1140 0.0049173 
1141 0.00495311 
1142 0.00496916 
1143 0.00497575 
1144 0.0049347 
1145 0.00489834 
1146 0.00488255 
1147 0.00486713 
1148 0.00485026 
1149 0.00484555 
1150 0.00484144 
1151 0.00483558 
1152 0.00483166 
1153 0.00483673 
1154 0.0048399 
1155 0.0048409 
1156 0.00484001 
1157 0.00484911 
1158 0.0048557 
1159 0.00485957 
1160 0.00485974 
1161 0.00486792 
1162 0.00487565 
1163 0.00488025 
1164 0.00488137 
1165 0.00488608 
1166 0.00489398 
1167 0.00489864 
1168 0.0049001 
1169 0.00490153 
1170 0.0049095 
1171 0.00491434 
1172 0.00491592 
1173 0.00491475 
1174 0.00492231 
1175 0.00492682 
1176 0.00492801 
1177 0.00492545 
1178 0.00493158 
1179 0.00493606 
1180 0.00493733 
1181 0.00493533 
1182 0.00493938 
1183 0.00494409 
1184 0.00494604 
1185 0.00494511 
1186 0.00494887 
1187 0.00495435 
1188 0.00495857 
1189 0.00496069 
1190 0.00496773 
1191 0.00497891 
1192 0.00498952 
1193 0.00500097 
1194 0.00502117 
1195 0.00504921 
1196 0.00507981 
1197 0.00511448 
1198 0.0051677 
1199 0.00520001 
1200 0.00521274 
1201 0.00518042 
1202 0.00513677 
1203 0.00510394 
1204 0.00507383 
1205 0.00505555 
1206 0.00504034 
1207 0.0050246 
1208 0.00500927 
1209 0.00500564 
1210 0.0050007 
1211 0.00499404 
1212 0.00498634 
1213 0.00498853 
1214 0.00498882 
1215 0.00498655 
1216 0.00498161 
1217 0.00498485 
1218 0.00498678 
1219 0.00498609 
1220 0.00498228 
1221 0.00498399 
1222 0.00498566 
1223 0.0049852 
1224 0.00498162 
1225 0.00498119 
1226 0.00498292 
1227 0.00498185 
1228 0.00497848 
1229 0.00497614 
1230 0.0049783 
1231 0.00497704 
1232 0.00497301 
1233 0.00496828 
1234 0.00497064 
1235 0.00496925 
1236 0.00496461 
1237 0.00495771 
1238 0.00496083 
1239 0.00495976 
1240 0.00495567 
1241 0.00494862 
1242 0.00495125 
1243 0.00495131 
1244 0.0049488 
1245 0.00494382 
1246 0.00494616 
1247 0.00495048 
1248 0.00495268 
1249 0.00495381 
1250 0.00496184 
1251 0.0049778 
1252 0.00499335 
1253 0.00501098 
1254 0.00504091 
1255 0.00508009 
1256 0.00512154 
1257 0.00513976 
1258 0.00514817 
1259 0.00510774 
1260 0.00505664 
1261 0.00502221 
1262 0.00499662 
1263 0.00497054 
1264 0.00494657 
1265 0.0049337 
1266 0.00492056 
1267 0.00490627 
1268 0.00489644 
1269 0.00489182 
1270 0.00488503 
1271 0.0048761 
1272 0.00487066 
1273 0.00487052 
1274 0.00486688 
1275 0.0048605 
1276 0.00485391 
1277 0.00485581 
1278 0.00485317 
1279 0.00484757 
1280 0.00483899 
1281 0.00484087 
1282 0.00483873 
1283 0.00483333 
1284 0.00482488 
1285 0.00482428 
1286 0.00482277 
1287 0.0048177 
1288 0.0048095 
1289 0.00480666 
1290 0.00480541 
1291 0.00480008 
1292 0.00479165 
1293 0.00478667 
1294 0.00478576 
1295 0.00478047 
1296 0.0047723 
1297 0.00476575 
1298 0.00476569 
1299 0.00476119 
1300 0.00475394 
1301 0.00474663 
1302 0.00474825 
1303 0.00474638 
1304 0.00474198 
1305 0.0047364 
1306 0.00474303 
1307 0.00474834 
1308 0.00475225 
1309 0.00475692 
1310 0.00477752 
1311 0.00480001 
1312 0.0048229 
1313 0.00485303 
1314 0.00487317 
1315 0.00487294 
1316 0.00489143 
1317 0.0048471 
1318 0.00480591 
1319 0.00476972 
1320 0.0047447 
1321 0.00472272 
1322 0.00470043 
1323 0.00468041 
1324 0.00467078 
1325 0.00465867 
1326 0.0046452 
1327 0.00463391 
1328 0.00463061 
1329 0.00462377 
1330 0.00461469 
1331 0.00460583 
1332 0.00460526 
1333 0.00460091 
1334 0.00459353 
1335 0.00458414 
1336 0.00458444 
1337 0.00458101 
1338 0.00457404 
1339 0.00456425 
1340 0.0045637 
1341 0.00456059 
1342 0.00455366 
1343 0.00454399 
1344 0.00454231 
1345 0.00453963 
1346 0.00453279 
1347 0.00452308 
1348 0.00452019 
1349 0.00451735 
1350 0.00451018 
1351 0.00450025 
1352 0.00449647 
1353 0.00449375 
1354 0.0044868 
1355 0.00447716 
1356 0.00447305 
1357 0.00447097 
1358 0.00446516 
1359 0.00445672 
1360 0.00445356 
1361 0.00445354 
1362 0.00445098 
1363 0.00444641 
1364 0.0044486 
1365 0.00445537 
1366 0.00446111 
1367 0.00446717 
1368 0.0044845 
1369 0.00450709 
1370 0.00453124 
1371 0.00456185 
1372 0.00458282 
1373 0.00458968 
1374 0.00456187 
1375 0.00451936 
1376 0.00448542 
1377 0.00445346 
1378 0.00443006 
1379 0.0044106 
1380 0.00439036 
1381 0.00437014 
1382 0.00436148 
1383 0.00435047 
1384 0.00433771 
1385 0.00432589 
1386 0.00432223 
1387 0.00431578 
1388 0.00430668 
1389 0.00429789 
1390 0.00429638 
1391 0.00429182 
1392 0.004284 
1393 0.00427578 
1394 0.00427484 
1395 0.00427077 
1396 0.00426313 
1397 0.00425506 
1398 0.00425378 
1399 0.00424962 
1400 0.0042419 
1401 0.00423407 
1402 0.00423286 
1403 0.00422841 
1404 0.00422059 
1405 0.00421306 
1406 0.00421144 
1407 0.00420618 
1408 0.0041979 
1409 0.00419075 
1410 0.00418889 
1411 0.00418358 
1412 0.00417507 
1413 0.00416875 
1414 0.00416723 
1415 0.0041626 
1416 0.004155 
1417 0.0041502 
1418 0.00415035 
1419 0.00414824 
1420 0.00414372 
1421 0.00414363 
1422 0.00414915 
1423 0.00415424 
1424 0.0041583 
1425 0.00417146 
1426 0.00419011 
1427 0.00420958 
1428 0.00423093 
1429 0.00424926 
1430 0.00425198 
1431 0.00426454 
1432 0.00422694 
1433 0.0041914 
1434 0.00415958 
1435 0.00413593 
1436 0.00411623 
1437 0.0040957 
1438 0.00407658 
1439 0.0040668 
1440 0.00405503 
1441 0.00404171 
1442 0.00403256 
1443 0.00402733 
1444 0.00401961 
1445 0.00400989 
1446 0.00400557 
1447 0.0040024 
1448 0.00399592 
1449 0.0039874 
1450 0.00398517 
1451 0.0039825 
1452 0.00397629 
1453 0.00396755 
1454 0.00396632 
1455 0.00396347 
1456 0.00395698 
1457 0.00394801 
1458 0.00394745 
1459 0.00394441 
1460 0.00393773 
1461 0.00392968 
1462 0.00392879 
1463 0.00392515 
1464 0.00391783 
1465 0.00391046 
1466 0.00390902 
1467 0.0039048 
1468 0.00389719 
1469 0.00389096 
1470 0.00388942 
1471 0.00388523 
1472 0.00387794 
1473 0.00387355 
1474 0.00387283 
1475 0.00386993 
1476 0.00386444 
1477 0.00386396 
1478 0.0038666 
1479 0.00386824 
1480 0.00386845 
1481 0.00387785 
1482 0.00388979 
1483 0.00390231 
1484 0.00391872 
1485 0.00394361 
1486 0.0039709 
1487 0.00398048 
1488 0.00398552 
1489 0.0039566 
1490 0.00391722 
1491 0.00389057 
1492 0.00386794 
1493 0.00384468 
1494 0.00382684 
1495 0.00381355 
1496 0.00379889 
1497 0.00378439 
1498 0.0037782 
1499 0.00377007 
1500 0.00375994 
1501 0.00375268 
1502 0.00374948 
1503 0.00374381 
1504 0.00373573 
1505 0.00373196 
1506 0.00372976 
1507 0.00372473 
1508 0.00371709 
1509 0.00371513 
1510 0.00371289 
1511 0.00370755 
1512 0.00369965 
1513 0.003699 
1514 0.00369632 
1515 0.00369044 
1516 0.00368372 
1517 0.00368307 
1518 0.00368002 
1519 0.0036735 
1520 0.00366816 
1521 0.00366678 
1522 0.00366272 
1523 0.00365554 
1524 0.00365163 
1525 0.00364972 
1526 0.00364507 
1527 0.00363766 
1528 0.00363568 
1529 0.00363381 
1530 0.00362933 
1531 0.00362258 
1532 0.00362353 
1533 0.00362309 
1534 0.00362061 
1535 0.00361904 
1536 0.00362389 
1537 0.0036285 
1538 0.00363239 
1539 0.00364265 
1540 0.00365749 
1541 0.00367323 
1542 0.00369191 
1543 0.00372007 
1544 0.00373292 
1545 0.00373825 
1546 0.00371405 
1547 0.00368077 
1548 0.0036512 
1549 0.0036315 
1550 0.00361254 
1551 0.00359313 
1552 0.00358029 
1553 0.00356956 
1554 0.00355712 
1555 0.00354573 
1556 0.00354075 
1557 0.00353395 
1558 0.00352515 
1559 0.00352006 
1560 0.00351725 
1561 0.00351209 
1562 0.00350467 
1563 0.00350304 
1564 0.00350077 
1565 0.00349575 
1566 0.00348936 
1567 0.00348893 
1568 0.00348633 
1569 0.00348072 
1570 0.00347617 
1571 0.00347523 
1572 0.00347196 
1573 0.00346579 
1574 0.00346321 
1575 0.0034618 
1576 0.00345767 
1577 0.00345083 
1578 0.00344995 
1579 0.00344763 
1580 0.00344243 
1581 0.00343672 
1582 0.00343592 
1583 0.003433 
1584 0.0034272 
1585 0.00342379 
1586 0.00342289 
1587 0.00341998 
1588 0.0034145 
1589 0.00341443 
1590 0.00341475 
1591 0.00341348 
1592 0.00341176 
1593 0.0034169 
1594 0.00342184 
1595 0.00342628 
1596 0.0034362 
1597 0.00345048 
1598 0.00346554 
1599 0.0034838 
1600 0.00351001 
1601 0.00352284 
1602 0.00352723 
1603 0.00350541 
1604 0.00347456 
1605 0.00344712 
1606 0.00343027 
1607 0.00341237 
1608 0.00339409 
1609 0.00338313 
1610 0.00337264 
1611 0.00336071 
1612 0.00335167 
1613 0.00334652 
1614 0.00333954 
1615 0.00333088 
1616 0.00332826 
1617 0.00332504 
1618 0.00331946 
1619 0.00331402 
1620 0.00331313 
1621 0.0033103 
1622 0.00330471 
1623 0.003302 
1624 0.00330085 
1625 0.00329735 
1626 0.00329132 
1627 0.00329076 
1628 0.00328898 
1629 0.0032846 
1630 0.00328002 
1631 0.00327971 
1632 0.0032773 
1633 0.00327198 
1634 0.0032695 
1635 0.00326827 
1636 0.00326461 
1637 0.00325839 
1638 0.00325803 
1639 0.00325602 
1640 0.00325146 
1641 0.00324739 
1642 0.00324697 
1643 0.00324469 
1644 0.00323996 
1645 0.00323912 
1646 0.00323935 
1647 0.00323807 
1648 0.00323558 
1649 0.00323963 
1650 0.00324317 
1651 0.00324602 
1652 0.00325329 
1653 0.00326452 
1654 0.00327638 
1655 0.00329118 
1656 0.00331195 
1657 0.00333408 
1658 0.00334361 
1659 0.00334768 
1660 0.00332612 
1661 0.00329505 
1662 0.00327609 
1663 0.00325746 
1664 0.00323835 
1665 0.00322692 
1666 0.00321525 
1667 0.00320251 
1668 0.00319423 
1669 0.00318802 
1670 0.00318005 
1671 0.00317224 
1672 0.00316969 
1673 0.00316559 
1674 0.00315927 
1675 0.00315637 
1676 0.00315469 
1677 0.0031509 
1678 0.00314526 
1679 0.00314522 
1680 0.00314333 
1681 0.00313895 
1682 0.00313588 
1683 0.00313526 
1684 0.00313259 
1685 0.00312734 
1686 0.00312667 
1687 0.00312538 
1688 0.00312176 
1689 0.00311777 
1690 0.00311758 
1691 0.00311534 
1692 0.00311044 
1693 0.00310864 
1694 0.00310747 
1695 0.0031041 
1696 0.00309905 
1697 0.00309907 
1698 0.0030973 
1699 0.00309323 
1700 0.00309113 
1701 0.00309113 
1702 0.00308954 
1703 0.00308588 
1704 0.00308814 
1705 0.00308979 
1706 0.0030904 
1707 0.00309369 
1708 0.00310049 
1709 0.00310756 
1710 0.00311601 
1711 0.00313115 
1712 0.00314718 
1713 0.00316306 
1714 0.00317758 
1715 0.00318234 
1716 0.00319229 
1717 0.00316798 
1718 0.00314443 
1719 0.00312293 
1720 0.00310768 
1721 0.00309364 
1722 0.00307883 
1723 0.00306856 
1724 0.00306047 
1725 0.00305083 
1726 0.00304267 
1727 0.00303869 
1728 0.00303323 
1729 0.00302607 
1730 0.003024 
1731 0.00302142 
1732 0.00301681 
1733 0.00301301 
1734 0.00301227 
1735 0.00300978 
1736 0.00300485 
1737 0.00300408 
1738 0.00300287 
1739 0.00299948 
1740 0.00299587 
1741 0.00299572 
1742 0.00299375 
1743 0.00298934 
1744 0.00298832 
1745 0.00298748 
1746 0.00298446 
1747 0.00298053 
1748 0.00298051 
1749 0.00297857 
1750 0.0029742 
1751 0.00297267 
1752 0.00297172 
1753 0.00296877 
1754 0.00296484 
1755 0.00296483 
1756 0.00296339 
1757 0.0029599 
1758 0.00295952 
1759 0.00295979 
1760 0.00295874 
1761 0.00295804 
1762 0.0029614 
1763 0.00296413 
1764 0.00296592 
1765 0.00297407 
1766 0.00298301 
1767 0.00299217 
1768 0.00300649 
1769 0.00302334 
1770 0.00303983 
1771 0.00305865 
1772 0.00306456 
1773 0.00305552 
1774 0.00302758 
1775 0.00300932 
1776 0.00299127 
1777 0.00297468 
1778 0.00296364 
1779 0.00295143 
1780 0.00293942 
1781 0.00293328 
1782 0.00292598 
1783 0.00291731 
1784 0.00291341 
1785 0.00290965 
1786 0.00290414 
1787 0.00289993 
1788 0.0028985 
1789 0.00289547 
1790 0.00289033 
1791 0.00288997 
1792 0.00288848 
1793 0.00288492 
1794 0.00288238 
1795 0.00288198 
1796 0.0028798 
1797 0.00287525 
1798 0.00287535 
1799 0.00287415 
1800 0.00287086 
1801 0.00286894 
1802 0.00286839 
1803 0.00286631 